<?xml version="1.0" encoding="UTF-8"?>

<!-- generated on 2025-05-13 00:25:32 by Eclipse SUMO GUI Version 1.22.0
<sumoConfiguration xmlns:xsi="http://www.w3.org/2001/XMLSchema-instance" xsi:noNamespaceSchemaLocation="http://sumo.dlr.de/xsd/sumoConfiguration.xsd">

    <input>
        <net-file value="input\kalayaan_kamias.net.xml"/>
        <route-files value="input\routes.rou.xml"/>
    </input>

    <output>
        <netstate-dump value="input\netstate.xml"/>
        <summary-output value="input\summary.xml"/>
        <tripinfo-output value="input\tripinfo.xml"/>
    </output>

    <time>
        <begin value="0"/>
        <end value="3600"/>
    </time>

    <traci_server>
        <remote-port value="51861"/>
    </traci_server>

</sumoConfiguration>
-->

<tripinfos xmlns:xsi="http://www.w3.org/2001/XMLSchema-instance" xsi:noNamespaceSchemaLocation="http://sumo.dlr.de/xsd/tripinfo_file.xsd">
    <tripinfo id="4" depart="5.00" departLane="94334032#0_0" departPos="5.10" departSpeed="0.00" departDelay="0.00" arrival="24.00" arrivalLane="-824295767#1_0" arrivalPos="0.79" arrivalSpeed="7.00" duration="19.00" routeLength="249.02" waitingTime="0.00" waitingCount="0" stopTime="0.00" timeLoss="9.82" rerouteNo="0" devices="tripinfo_4" vType="DEFAULT_VEHTYPE" speedFactor="1.08" vaporized=""/>
    <tripinfo id="5" depart="5.00" departLane="-1311896096#0_0" departPos="2.03" departSpeed="0.00" departDelay="0.00" arrival="24.00" arrivalLane="61450521#2_1" arrivalPos="11.05" arrivalSpeed="27.74" duration="19.00" routeLength="342.24" waitingTime="0.00" waitingCount="0" stopTime="0.00" timeLoss="6.16" rerouteNo="0" devices="tripinfo_5" vType="DEFAULT_VEHTYPE" speedFactor="1.03" vaporized=""/>
    <tripinfo id="1" depart="1.00" departLane="107391307#1_0" departPos="5.10" departSpeed="0.00" departDelay="0.00" arrival="38.00" arrivalLane="-107391307#1_1" arrivalPos="80.66" arrivalSpeed="29.11" duration="37.00" routeLength="534.28" waitingTime="0.00" waitingCount="0" stopTime="0.00" timeLoss="17.08" rerouteNo="0" devices="tripinfo_1" vType="DEFAULT_VEHTYPE" speedFactor="1.06" vaporized=""/>
    <tripinfo id="10" depart="22.00" departLane="-107391307#1_0" departPos="5.10" departSpeed="0.00" departDelay="0.00" arrival="39.00" arrivalLane="-1311896097#0_0" arrivalPos="15.43" arrivalSpeed="23.11" duration="17.00" routeLength="235.25" waitingTime="0.00" waitingCount="0" stopTime="0.00" timeLoss="6.25" rerouteNo="0" devices="tripinfo_10" vType="DEFAULT_VEHTYPE" speedFactor="0.86" vaporized=""/>
    <tripinfo id="13" depart="26.00" departLane="1311896096#0_0" departPos="2.03" departSpeed="0.00" departDelay="0.00" arrival="40.00" arrivalLane="107391307#1_0" arrivalPos="80.66" arrivalSpeed="27.54" duration="14.00" routeLength="200.64" waitingTime="0.00" waitingCount="0" stopTime="0.00" timeLoss="6.24" rerouteNo="0" devices="tripinfo_13" vType="DEFAULT_VEHTYPE" speedFactor="1.03" vaporized=""/>
    <tripinfo id="9" depart="16.00" departLane="-824295767#0_0" departPos="5.10" departSpeed="0.00" departDelay="0.00" arrival="43.00" arrivalLane="-46256527#0_0" arrivalPos="346.38" arrivalSpeed="19.76" duration="27.00" routeLength="448.12" waitingTime="0.00" waitingCount="0" stopTime="0.00" timeLoss="5.18" rerouteNo="0" devices="tripinfo_9" vType="DEFAULT_VEHTYPE" speedFactor="0.94" vaporized=""/>
    <tripinfo id="2" depart="2.00" departLane="-244388662#0_0" departPos="1.36" departSpeed="0.00" departDelay="0.00" arrival="49.00" arrivalLane="244388662#1_1" arrivalPos="11.79" arrivalSpeed="8.42" duration="47.00" routeLength="18.11" waitingTime="42.00" waitingCount="1" stopTime="0.00" timeLoss="45.56" rerouteNo="0" devices="tripinfo_2" vType="DEFAULT_VEHTYPE" speedFactor="0.94" vaporized=""/>
    <tripinfo id="7" depart="12.00" departLane="-244388662#2_0" departPos="0.20" departSpeed="0.00" departDelay="2.00" arrival="52.00" arrivalLane="-1311896097#0_0" arrivalPos="15.43" arrivalSpeed="10.86" duration="40.00" routeLength="48.83" waitingTime="28.00" waitingCount="1" stopTime="0.00" timeLoss="36.75" rerouteNo="0" devices="tripinfo_7" vType="DEFAULT_VEHTYPE" speedFactor="1.05" vaporized=""/>
    <tripinfo id="19" depart="48.00" departLane="-244388662#1_0" departPos="5.10" departSpeed="0.00" departDelay="10.00" arrival="53.00" arrivalLane="-824295767#1_0" arrivalPos="0.79" arrivalSpeed="10.46" duration="5.00" routeLength="30.30" waitingTime="0.00" waitingCount="0" stopTime="0.00" timeLoss="3.45" rerouteNo="0" devices="tripinfo_19" vType="DEFAULT_VEHTYPE" speedFactor="0.88" vaporized=""/>
    <tripinfo id="6" depart="9.00" departLane="-244388662#2_0" departPos="0.20" departSpeed="0.00" departDelay="0.00" arrival="54.00" arrivalLane="-46256527#1_0" arrivalPos="38.13" arrivalSpeed="17.57" duration="45.00" routeLength="137.15" waitingTime="29.00" waitingCount="1" stopTime="0.00" timeLoss="37.77" rerouteNo="0" devices="tripinfo_6" vType="DEFAULT_VEHTYPE" speedFactor="0.83" vaporized=""/>
    <tripinfo id="3" depart="4.00" departLane="675768320#1_0" departPos="5.10" departSpeed="0.00" departDelay="0.00" arrival="56.00" arrivalLane="244388662#3_1" arrivalPos="13.75" arrivalSpeed="13.25" duration="52.00" routeLength="358.36" waitingTime="19.00" waitingCount="1" stopTime="0.00" timeLoss="38.27" rerouteNo="0" devices="tripinfo_3" vType="DEFAULT_VEHTYPE" speedFactor="1.01" vaporized=""/>
    <tripinfo id="21" depart="41.00" departLane="-244388662#2_0" departPos="0.20" departSpeed="0.00" departDelay="0.00" arrival="58.00" arrivalLane="244388662#2_1" arrivalPos="0.20" arrivalSpeed="9.07" duration="17.00" routeLength="50.35" waitingTime="1.00" waitingCount="1" stopTime="0.00" timeLoss="13.36" rerouteNo="0" devices="tripinfo_21" vType="DEFAULT_VEHTYPE" speedFactor="0.94" vaporized=""/>
    <tripinfo id="16" depart="33.00" departLane="824295767#1_0" departPos="0.79" departSpeed="0.00" departDelay="0.00" arrival="59.00" arrivalLane="824295767#0_1" arrivalPos="39.75" arrivalSpeed="12.36" duration="26.00" routeLength="89.73" waitingTime="11.00" waitingCount="1" stopTime="0.00" timeLoss="20.59" rerouteNo="0" devices="tripinfo_16" vType="DEFAULT_VEHTYPE" speedFactor="1.12" vaporized=""/>
    <tripinfo id="28" depart="54.00" departLane="-46256527#1_0" departPos="5.10" departSpeed="0.00" departDelay="0.00" arrival="71.00" arrivalLane="824295767#1_1" arrivalPos="0.79" arrivalSpeed="18.71" duration="17.00" routeLength="130.91" waitingTime="0.00" waitingCount="0" stopTime="0.00" timeLoss="9.62" rerouteNo="0" devices="tripinfo_28" vType="DEFAULT_VEHTYPE" speedFactor="0.97" vaporized=""/>
    <tripinfo id="34" depart="65.00" departLane="675768320#2_0" departPos="5.10" departSpeed="0.00" departDelay="0.00" arrival="88.00" arrivalLane="46256527#1_1" arrivalPos="38.13" arrivalSpeed="13.70" duration="23.00" routeLength="224.67" waitingTime="0.00" waitingCount="0" stopTime="0.00" timeLoss="11.64" rerouteNo="0" devices="tripinfo_34" vType="DEFAULT_VEHTYPE" speedFactor="0.92" vaporized=""/>
    <tripinfo id="17" depart="33.00" departLane="1311896097#0_0" departPos="5.10" departSpeed="0.00" departDelay="0.00" arrival="93.00" arrivalLane="-1311896096#0_0" arrivalPos="2.03" arrivalSpeed="5.28" duration="60.00" routeLength="816.05" waitingTime="6.00" waitingCount="1" stopTime="0.00" timeLoss="29.65" rerouteNo="0" devices="tripinfo_17" vType="DEFAULT_VEHTYPE" speedFactor="0.99" vaporized=""/>
    <tripinfo id="33" depart="63.00" departLane="-244388662#1_0" departPos="5.10" departSpeed="0.00" departDelay="0.00" arrival="93.00" arrivalLane="-46256527#0_0" arrivalPos="346.38" arrivalSpeed="19.36" duration="30.00" routeLength="483.62" waitingTime="0.00" waitingCount="0" stopTime="0.00" timeLoss="5.00" rerouteNo="0" devices="tripinfo_33" vType="DEFAULT_VEHTYPE" speedFactor="0.87" vaporized=""/>
    <tripinfo id="36" depart="67.00" departLane="-1311896096#1_0" departPos="5.10" departSpeed="0.00" departDelay="0.00" arrival="95.00" arrivalLane="-1311896097#0_0" arrivalPos="15.43" arrivalSpeed="12.33" duration="28.00" routeLength="51.79" waitingTime="15.00" waitingCount="1" stopTime="0.00" timeLoss="26.20" rerouteNo="0" devices="tripinfo_36" vType="DEFAULT_VEHTYPE" speedFactor="1.13" vaporized=""/>
    <tripinfo id="15" depart="31.00" departLane="-824295767#0_0" departPos="5.10" departSpeed="0.00" departDelay="0.00" arrival="96.00" arrivalLane="-107391307#0_1" arrivalPos="84.06" arrivalSpeed="11.15" duration="65.00" routeLength="844.21" waitingTime="0.00" waitingCount="0" stopTime="0.00" timeLoss="32.88" rerouteNo="0" devices="tripinfo_15" vType="DEFAULT_VEHTYPE" speedFactor="1.05" vaporized=""/>
    <tripinfo id="18" depart="36.00" departLane="1311896097#0_0" departPos="5.10" departSpeed="0.00" departDelay="2.00" arrival="97.00" arrivalLane="1311896096#1_0" arrivalPos="16.99" arrivalSpeed="12.90" duration="61.00" routeLength="51.91" waitingTime="50.00" waitingCount="1" stopTime="0.00" timeLoss="58.55" rerouteNo="0" devices="tripinfo_18" vType="DEFAULT_VEHTYPE" speedFactor="0.93" vaporized=""/>
    <tripinfo id="41" depart="77.00" departLane="675768320#0_0" departPos="5.10" departSpeed="0.00" departDelay="0.00" arrival="106.00" arrivalLane="675768320#1_0" arrivalPos="230.78" arrivalSpeed="30.22" duration="29.00" routeLength="239.25" waitingTime="8.00" waitingCount="1" stopTime="0.00" timeLoss="20.61" rerouteNo="0" devices="tripinfo_41" vType="DEFAULT_VEHTYPE" speedFactor="1.15" vaporized=""/>
    <tripinfo id="23" depart="44.00" departLane="1311896096#0_0" departPos="2.03" departSpeed="0.00" departDelay="1.00" arrival="111.00" arrivalLane="-94334032#1_0" arrivalPos="195.52" arrivalSpeed="18.93" duration="67.00" routeLength="1023.97" waitingTime="0.00" waitingCount="0" stopTime="0.00" timeLoss="25.88" rerouteNo="0" devices="tripinfo_23" vType="DEFAULT_VEHTYPE" speedFactor="0.94" vaporized=""/>
    <tripinfo id="40" depart="74.00" departLane="-1311896097#0_0" departPos="5.10" departSpeed="0.00" departDelay="0.00" arrival="115.00" arrivalLane="-824295767#0_0" arrivalPos="39.75" arrivalSpeed="13.83" duration="41.00" routeLength="536.70" waitingTime="0.00" waitingCount="0" stopTime="0.00" timeLoss="22.46" rerouteNo="0" devices="tripinfo_40" vType="DEFAULT_VEHTYPE" speedFactor="1.18" vaporized=""/>
    <tripinfo id="8" depart="14.00" departLane="107391307#0_0" departPos="5.10" departSpeed="0.00" departDelay="0.00" arrival="124.00" arrivalLane="94334032#1_1" arrivalPos="195.52" arrivalSpeed="24.24" duration="110.00" routeLength="1237.99" waitingTime="26.00" waitingCount="1" stopTime="0.00" timeLoss="57.81" rerouteNo="0" devices="tripinfo_8" vType="DEFAULT_VEHTYPE" speedFactor="0.89" vaporized=""/>
    <tripinfo id="11" depart="24.00" departLane="107391307#0_0" departPos="5.10" departSpeed="0.00" departDelay="0.00" arrival="127.00" arrivalLane="94334032#1_1" arrivalPos="195.52" arrivalSpeed="29.03" duration="103.00" routeLength="1237.99" waitingTime="20.00" waitingCount="1" stopTime="0.00" timeLoss="59.64" rerouteNo="0" devices="tripinfo_11" vType="DEFAULT_VEHTYPE" speedFactor="1.09" vaporized=""/>
    <tripinfo id="68" depart="130.00" departLane="-1311896097#1_0" departPos="0.79" departSpeed="0.00" departDelay="0.00" arrival="131.00" arrivalLane="-1311896097#1_0" arrivalPos="0.79" arrivalSpeed="1.36" duration="1.00" routeLength="0.00" waitingTime="0.00" waitingCount="0" stopTime="0.00" timeLoss="0.96" rerouteNo="0" devices="tripinfo_68" vType="DEFAULT_VEHTYPE" speedFactor="1.17" vaporized=""/>
    <tripinfo id="27" depart="51.00" departLane="107391307#0_0" departPos="5.10" departSpeed="0.00" departDelay="0.00" arrival="136.00" arrivalLane="94334032#1_1" arrivalPos="195.52" arrivalSpeed="27.90" duration="85.00" routeLength="1237.99" waitingTime="0.00" waitingCount="0" stopTime="0.00" timeLoss="38.37" rerouteNo="0" devices="tripinfo_27" vType="DEFAULT_VEHTYPE" speedFactor="1.01" vaporized=""/>
    <tripinfo id="58" depart="115.00" departLane="-46256527#1_0" departPos="5.10" departSpeed="0.00" departDelay="1.00" arrival="138.00" arrivalLane="-46256527#0_0" arrivalPos="346.38" arrivalSpeed="23.66" duration="23.00" routeLength="393.90" waitingTime="0.00" waitingCount="0" stopTime="0.00" timeLoss="6.24" rerouteNo="0" devices="tripinfo_58" vType="DEFAULT_VEHTYPE" speedFactor="1.09" vaporized=""/>
    <tripinfo id="49" depart="92.00" departLane="46256527#1_0" departPos="5.10" departSpeed="0.00" departDelay="0.00" arrival="141.00" arrivalLane="-824295767#1_1" arrivalPos="0.79" arrivalSpeed="2.83" duration="49.00" routeLength="93.57" waitingTime="32.00" waitingCount="2" stopTime="0.00" timeLoss="43.94" rerouteNo="0" devices="tripinfo_49" vType="DEFAULT_VEHTYPE" speedFactor="1.02" vaporized=""/>
    <tripinfo id="32" depart="62.00" departLane="1311896096#1_0" departPos="5.10" departSpeed="0.00" departDelay="0.00" arrival="142.00" arrivalLane="94334032#1_1" arrivalPos="195.52" arrivalSpeed="22.84" duration="80.00" routeLength="1264.38" waitingTime="0.00" waitingCount="0" stopTime="0.00" timeLoss="21.35" rerouteNo="0" devices="tripinfo_32" vType="DEFAULT_VEHTYPE" speedFactor="0.83" vaporized=""/>
    <tripinfo id="45" depart="137.00" departLane="-244388662#0_0" departPos="1.36" departSpeed="0.00" departDelay="53.00" arrival="142.00" arrivalLane="-824295767#1_0" arrivalPos="0.79" arrivalSpeed="10.80" duration="5.00" routeLength="21.96" waitingTime="0.00" waitingCount="0" stopTime="0.00" timeLoss="3.87" rerouteNo="0" devices="tripinfo_45" vType="DEFAULT_VEHTYPE" speedFactor="1.17" vaporized=""/>
    <tripinfo id="35" depart="66.00" departLane="675768320#1_0" departPos="5.10" departSpeed="0.00" departDelay="0.00" arrival="145.00" arrivalLane="-46256527#1_0" arrivalPos="38.13" arrivalSpeed="19.89" duration="79.00" routeLength="422.19" waitingTime="43.00" waitingCount="2" stopTime="0.00" timeLoss="61.51" rerouteNo="0" devices="tripinfo_35" vType="DEFAULT_VEHTYPE" speedFactor="0.95" vaporized=""/>
    <tripinfo id="62" depart="123.00" departLane="-824295767#1_0" departPos="0.79" departSpeed="0.00" departDelay="0.00" arrival="146.00" arrivalLane="244388662#3_0" arrivalPos="13.75" arrivalSpeed="18.67" duration="23.00" routeLength="152.14" waitingTime="1.00" waitingCount="1" stopTime="0.00" timeLoss="15.37" rerouteNo="0" devices="tripinfo_62" vType="DEFAULT_VEHTYPE" speedFactor="1.00" vaporized=""/>
    <tripinfo id="51" depart="97.00" departLane="-46256527#1_0" departPos="5.10" departSpeed="0.00" departDelay="0.00" arrival="148.00" arrivalLane="107391307#0_0" arrivalPos="84.06" arrivalSpeed="21.90" duration="51.00" routeLength="253.17" waitingTime="21.00" waitingCount="1" stopTime="0.00" timeLoss="40.01" rerouteNo="0" devices="tripinfo_51" vType="DEFAULT_VEHTYPE" speedFactor="1.18" vaporized=""/>
    <tripinfo id="52" depart="100.00" departLane="1311896097#1_0" departPos="0.79" departSpeed="0.00" departDelay="0.00" arrival="149.00" arrivalLane="244388662#1_1" arrivalPos="11.79" arrivalSpeed="13.55" duration="49.00" routeLength="129.49" waitingTime="22.00" waitingCount="2" stopTime="0.00" timeLoss="42.53" rerouteNo="0" devices="tripinfo_52" vType="DEFAULT_VEHTYPE" speedFactor="1.10" vaporized=""/>
    <tripinfo id="59" depart="115.00" departLane="-244388662#2_0" departPos="0.20" departSpeed="0.00" departDelay="0.00" arrival="158.00" arrivalLane="244388662#3_1" arrivalPos="13.75" arrivalSpeed="14.16" duration="43.00" routeLength="73.32" waitingTime="24.00" waitingCount="2" stopTime="0.00" timeLoss="39.50" rerouteNo="0" devices="tripinfo_59" vType="DEFAULT_VEHTYPE" speedFactor="1.04" vaporized=""/>
    <tripinfo id="25" depart="49.00" departLane="94334032#1_0" departPos="5.10" departSpeed="0.00" departDelay="0.00" arrival="160.00" arrivalLane="61450521#2_2" arrivalPos="11.05" arrivalSpeed="27.36" duration="111.00" routeLength="665.63" waitingTime="54.00" waitingCount="3" stopTime="0.00" timeLoss="84.24" rerouteNo="0" devices="tripinfo_25" vType="DEFAULT_VEHTYPE" speedFactor="1.02" vaporized=""/>
    <tripinfo id="79" depart="156.00" departLane="-244388662#0_0" departPos="1.36" departSpeed="0.00" departDelay="2.00" arrival="161.00" arrivalLane="-1311896097#0_0" arrivalPos="15.43" arrivalSpeed="9.79" duration="5.00" routeLength="26.09" waitingTime="0.00" waitingCount="0" stopTime="0.00" timeLoss="3.31" rerouteNo="0" devices="tripinfo_79" vType="DEFAULT_VEHTYPE" speedFactor="0.97" vaporized=""/>
    <tripinfo id="78" depart="150.00" departLane="-244388662#1_0" departPos="5.10" departSpeed="0.00" departDelay="0.00" arrival="164.00" arrivalLane="244388662#3_1" arrivalPos="13.75" arrivalSpeed="14.59" duration="14.00" routeLength="58.92" waitingTime="1.00" waitingCount="1" stopTime="0.00" timeLoss="10.82" rerouteNo="0" devices="tripinfo_78" vType="DEFAULT_VEHTYPE" speedFactor="1.02" vaporized=""/>
    <tripinfo id="57" depart="107.00" departLane="-244388662#2_0" departPos="0.20" departSpeed="0.00" departDelay="0.00" arrival="168.00" arrivalLane="61450521#2_2" arrivalPos="11.05" arrivalSpeed="26.37" duration="61.00" routeLength="360.62" waitingTime="30.00" waitingCount="2" stopTime="0.00" timeLoss="46.05" rerouteNo="0" devices="tripinfo_57" vType="DEFAULT_VEHTYPE" speedFactor="0.96" vaporized=""/>
    <tripinfo id="69" depart="133.00" departLane="675768320#1_0" departPos="5.10" departSpeed="0.00" departDelay="0.00" arrival="168.00" arrivalLane="824295767#1_1" arrivalPos="0.79" arrivalSpeed="13.32" duration="35.00" routeLength="414.90" waitingTime="0.00" waitingCount="0" stopTime="0.00" timeLoss="18.50" rerouteNo="0" devices="tripinfo_69" vType="DEFAULT_VEHTYPE" speedFactor="1.02" vaporized=""/>
    <tripinfo id="53" depart="103.00" departLane="-244388662#2_0" departPos="0.20" departSpeed="0.00" departDelay="0.00" arrival="172.00" arrivalLane="107391307#2_0" arrivalPos="180.48" arrivalSpeed="24.72" duration="69.00" routeLength="528.67" waitingTime="25.00" waitingCount="1" stopTime="0.00" timeLoss="43.93" rerouteNo="0" devices="tripinfo_53" vType="DEFAULT_VEHTYPE" speedFactor="0.90" vaporized=""/>
    <tripinfo id="72" depart="136.00" departLane="61450521#2_0" departPos="5.10" departSpeed="0.00" departDelay="0.00" arrival="182.00" arrivalLane="61450521#3_0" arrivalPos="1034.84" arrivalSpeed="26.77" duration="46.00" routeLength="1041.08" waitingTime="0.00" waitingCount="0" stopTime="0.00" timeLoss="7.68" rerouteNo="0" devices="tripinfo_72" vType="DEFAULT_VEHTYPE" speedFactor="1.00" vaporized=""/>
    <tripinfo id="24" depart="45.00" departLane="107391307#1_0" departPos="5.10" departSpeed="0.00" departDelay="0.00" arrival="183.00" arrivalLane="-824295767#1_0" arrivalPos="0.79" arrivalSpeed="7.12" duration="138.00" routeLength="1180.49" waitingTime="44.00" waitingCount="2" stopTime="0.00" timeLoss="98.82" rerouteNo="0" devices="tripinfo_24" vType="DEFAULT_VEHTYPE" speedFactor="1.16" vaporized=""/>
    <tripinfo id="30" depart="56.00" departLane="94334032#0_0" departPos="5.10" departSpeed="0.00" departDelay="0.00" arrival="183.00" arrivalLane="-1311896096#1_0" arrivalPos="16.99" arrivalSpeed="5.06" duration="127.00" routeLength="1041.50" waitingTime="41.00" waitingCount="3" stopTime="0.00" timeLoss="83.84" rerouteNo="0" devices="tripinfo_30" vType="DEFAULT_VEHTYPE" speedFactor="0.89" vaporized=""/>
    <tripinfo id="54" depart="103.00" departLane="107391307#1_0" departPos="5.10" departSpeed="0.00" departDelay="0.00" arrival="184.00" arrivalLane="244388662#1_0" arrivalPos="11.79" arrivalSpeed="9.94" duration="81.00" routeLength="678.84" waitingTime="27.00" waitingCount="1" stopTime="0.00" timeLoss="55.75" rerouteNo="0" devices="tripinfo_54" vType="DEFAULT_VEHTYPE" speedFactor="1.03" vaporized=""/>
    <tripinfo id="82" depart="159.00" departLane="824295767#0_0" departPos="5.10" departSpeed="0.00" departDelay="0.00" arrival="184.00" arrivalLane="107391307#2_0" arrivalPos="180.48" arrivalSpeed="26.90" duration="25.00" routeLength="434.35" waitingTime="0.00" waitingCount="0" stopTime="0.00" timeLoss="9.41" rerouteNo="0" devices="tripinfo_82" vType="DEFAULT_VEHTYPE" speedFactor="1.08" vaporized=""/>
    <tripinfo id="63" depart="123.00" departLane="1311896096#1_0" departPos="5.10" departSpeed="0.00" departDelay="0.00" arrival="188.00" arrivalLane="-1311896097#1_0" arrivalPos="0.79" arrivalSpeed="13.13" duration="65.00" routeLength="797.95" waitingTime="0.00" waitingCount="0" stopTime="0.00" timeLoss="31.60" rerouteNo="0" devices="tripinfo_63" vType="DEFAULT_VEHTYPE" speedFactor="0.90" vaporized=""/>
    <tripinfo id="67" depart="127.00" departLane="-107391307#0_0" departPos="5.10" departSpeed="0.00" departDelay="0.00" arrival="189.00" arrivalLane="1311896096#1_1" arrivalPos="16.99" arrivalSpeed="9.32" duration="62.00" routeLength="131.66" waitingTime="40.00" waitingCount="1" stopTime="0.00" timeLoss="54.92" rerouteNo="0" devices="tripinfo_67" vType="DEFAULT_VEHTYPE" speedFactor="0.85" vaporized=""/>
    <tripinfo id="37" depart="71.00" departLane="107391307#1_0" departPos="5.10" departSpeed="0.00" departDelay="0.00" arrival="192.00" arrivalLane="-46256527#1_0" arrivalPos="38.13" arrivalSpeed="19.70" duration="121.00" routeLength="1272.94" waitingTime="32.00" waitingCount="1" stopTime="0.00" timeLoss="67.13" rerouteNo="0" devices="tripinfo_37" vType="DEFAULT_VEHTYPE" speedFactor="0.93" vaporized=""/>
    <tripinfo id="44" depart="81.00" departLane="824295767#0_0" departPos="5.10" departSpeed="0.00" departDelay="0.00" arrival="192.00" arrivalLane="61450521#3_0" arrivalPos="1034.84" arrivalSpeed="27.17" duration="111.00" routeLength="1424.95" waitingTime="44.00" waitingCount="1" stopTime="0.00" timeLoss="59.58" rerouteNo="0" devices="tripinfo_44" vType="DEFAULT_VEHTYPE" speedFactor="1.01" vaporized=""/>
    <tripinfo id="60" depart="116.00" departLane="107391307#1_0" departPos="5.10" departSpeed="0.00" departDelay="0.00" arrival="198.00" arrivalLane="1311896096#1_1" arrivalPos="16.99" arrivalSpeed="10.03" duration="82.00" routeLength="680.38" waitingTime="25.00" waitingCount="1" stopTime="0.00" timeLoss="55.98" rerouteNo="0" devices="tripinfo_60" vType="DEFAULT_VEHTYPE" speedFactor="1.04" vaporized=""/>
    <tripinfo id="94" depart="199.00" departLane="-824295767#1_0" departPos="0.79" departSpeed="0.00" departDelay="16.00" arrival="200.00" arrivalLane="-824295767#1_0" arrivalPos="0.79" arrivalSpeed="1.68" duration="1.00" routeLength="0.00" waitingTime="0.00" waitingCount="0" stopTime="0.00" timeLoss="0.93" rerouteNo="0" devices="tripinfo_94" vType="DEFAULT_VEHTYPE" speedFactor="1.04" vaporized=""/>
    <tripinfo id="65" depart="124.00" departLane="46256527#0_0" departPos="5.10" departSpeed="0.00" departDelay="0.00" arrival="205.00" arrivalLane="-1311896097#1_1" arrivalPos="0.79" arrivalSpeed="22.81" duration="81.00" routeLength="1262.10" waitingTime="0.00" waitingCount="0" stopTime="0.00" timeLoss="20.12" rerouteNo="0" devices="tripinfo_65" vType="DEFAULT_VEHTYPE" speedFactor="0.85" vaporized=""/>
    <tripinfo id="91" depart="177.00" departLane="-107391307#1_0" departPos="5.10" departSpeed="0.00" departDelay="0.00" arrival="210.00" arrivalLane="107391307#0_1" arrivalPos="84.06" arrivalSpeed="21.50" duration="33.00" routeLength="315.12" waitingTime="0.00" waitingCount="0" stopTime="0.00" timeLoss="18.24" rerouteNo="0" devices="tripinfo_91" vType="DEFAULT_VEHTYPE" speedFactor="0.91" vaporized=""/>
    <tripinfo id="101" depart="210.00" departLane="1311896097#1_0" departPos="0.79" departSpeed="0.00" departDelay="2.00" arrival="211.00" arrivalLane="1311896097#1_0" arrivalPos="0.79" arrivalSpeed="1.70" duration="1.00" routeLength="0.00" waitingTime="0.00" waitingCount="0" stopTime="0.00" timeLoss="0.94" rerouteNo="0" devices="tripinfo_101" vType="DEFAULT_VEHTYPE" speedFactor="0.97" vaporized=""/>
    <tripinfo id="71" depart="135.00" departLane="4910318#0_0" departPos="5.10" departSpeed="0.00" departDelay="0.00" arrival="230.00" arrivalLane="244388662#1_0" arrivalPos="11.79" arrivalSpeed="11.86" duration="95.00" routeLength="628.74" waitingTime="36.00" waitingCount="1" stopTime="0.00" timeLoss="52.87" rerouteNo="0" devices="tripinfo_71" vType="DEFAULT_VEHTYPE" speedFactor="1.00" vaporized=""/>
    <tripinfo id="74" depart="139.00" departLane="94334032#0_0" departPos="5.10" departSpeed="0.00" departDelay="0.00" arrival="232.00" arrivalLane="244388662#1_1" arrivalPos="11.79" arrivalSpeed="12.21" duration="93.00" routeLength="368.69" waitingTime="46.00" waitingCount="2" stopTime="0.00" timeLoss="79.12" rerouteNo="0" devices="tripinfo_74" vType="DEFAULT_VEHTYPE" speedFactor="1.14" vaporized=""/>
    <tripinfo id="107" depart="219.00" departLane="824295767#0_0" departPos="5.10" departSpeed="0.00" departDelay="0.00" arrival="233.00" arrivalLane="244388662#0_0" arrivalPos="1.35" arrivalSpeed="13.44" duration="14.00" routeLength="57.96" waitingTime="0.00" waitingCount="0" stopTime="0.00" timeLoss="11.22" rerouteNo="0" devices="tripinfo_107" vType="DEFAULT_VEHTYPE" speedFactor="1.03" vaporized=""/>
    <tripinfo id="64" depart="124.00" departLane="107391307#0_0" departPos="5.10" departSpeed="0.00" departDelay="0.00" arrival="234.00" arrivalLane="1311896097#0_1" arrivalPos="15.43" arrivalSpeed="24.29" duration="110.00" routeLength="1262.82" waitingTime="12.00" waitingCount="1" stopTime="0.00" timeLoss="55.94" rerouteNo="0" devices="tripinfo_64" vType="DEFAULT_VEHTYPE" speedFactor="0.88" vaporized=""/>
    <tripinfo id="95" depart="192.00" departLane="94334032#0_0" departPos="5.10" departSpeed="0.00" departDelay="0.00" arrival="235.00" arrivalLane="244388662#0_0" arrivalPos="1.35" arrivalSpeed="12.95" duration="43.00" routeLength="356.60" waitingTime="6.00" waitingCount="1" stopTime="0.00" timeLoss="27.22" rerouteNo="0" devices="tripinfo_95" vType="DEFAULT_VEHTYPE" speedFactor="1.02" vaporized=""/>
    <tripinfo id="90" depart="176.00" departLane="4910318#0_0" departPos="5.10" departSpeed="0.00" departDelay="0.00" arrival="239.00" arrivalLane="244388662#3_0" arrivalPos="13.75" arrivalSpeed="19.27" duration="63.00" routeLength="661.21" waitingTime="0.00" waitingCount="0" stopTime="0.00" timeLoss="13.59" rerouteNo="0" devices="tripinfo_90" vType="DEFAULT_VEHTYPE" speedFactor="0.88" vaporized=""/>
    <tripinfo id="109" depart="223.00" departLane="675768320#1_0" departPos="5.10" departSpeed="0.00" departDelay="2.00" arrival="239.00" arrivalLane="675768320#2_0" arrivalPos="18.00" arrivalSpeed="27.59" duration="16.00" routeLength="253.22" waitingTime="0.00" waitingCount="0" stopTime="0.00" timeLoss="6.93" rerouteNo="0" devices="tripinfo_109" vType="DEFAULT_VEHTYPE" speedFactor="1.01" vaporized=""/>
    <tripinfo id="105" depart="218.00" departLane="675768320#0_0" departPos="5.10" departSpeed="0.00" departDelay="0.00" arrival="243.00" arrivalLane="-46256527#1_0" arrivalPos="38.13" arrivalSpeed="17.59" duration="25.00" routeLength="435.76" waitingTime="0.00" waitingCount="0" stopTime="0.00" timeLoss="7.72" rerouteNo="0" devices="tripinfo_105" vType="DEFAULT_VEHTYPE" speedFactor="0.98" vaporized=""/>
    <tripinfo id="73" depart="136.00" departLane="94334032#1_0" departPos="5.10" departSpeed="0.00" departDelay="0.00" arrival="244.00" arrivalLane="61450521#0_1" arrivalPos="253.60" arrivalSpeed="24.35" duration="108.00" routeLength="641.15" waitingTime="49.00" waitingCount="2" stopTime="0.00" timeLoss="78.54" rerouteNo="0" devices="tripinfo_73" vType="DEFAULT_VEHTYPE" speedFactor="0.90" vaporized=""/>
    <tripinfo id="88" depart="169.00" departLane="1311896096#1_0" departPos="5.10" departSpeed="0.00" departDelay="0.00" arrival="245.00" arrivalLane="1311896097#1_1" arrivalPos="0.79" arrivalSpeed="26.49" duration="76.00" routeLength="1290.33" waitingTime="0.00" waitingCount="0" stopTime="0.00" timeLoss="26.88" rerouteNo="0" devices="tripinfo_88" vType="DEFAULT_VEHTYPE" speedFactor="0.99" vaporized=""/>
    <tripinfo id="92" depart="178.00" departLane="94334032#0_0" departPos="5.10" departSpeed="0.00" departDelay="0.00" arrival="248.00" arrivalLane="61450521#2_2" arrivalPos="11.05" arrivalSpeed="24.53" duration="70.00" routeLength="688.46" waitingTime="15.00" waitingCount="1" stopTime="0.00" timeLoss="38.99" rerouteNo="0" devices="tripinfo_92" vType="DEFAULT_VEHTYPE" speedFactor="0.91" vaporized=""/>
    <tripinfo id="87" depart="169.00" departLane="-1311896097#1_0" departPos="0.79" departSpeed="0.00" departDelay="0.00" arrival="253.00" arrivalLane="-1311896096#1_1" arrivalPos="16.99" arrivalSpeed="28.08" duration="84.00" routeLength="1294.68" waitingTime="10.00" waitingCount="1" stopTime="0.00" timeLoss="35.51" rerouteNo="0" devices="tripinfo_87" vType="DEFAULT_VEHTYPE" speedFactor="1.02" vaporized=""/>
    <tripinfo id="61" depart="119.00" departLane="-94334032#1_0" departPos="5.10" departSpeed="0.00" departDelay="0.00" arrival="254.00" arrivalLane="4910318#1_0" arrivalPos="774.25" arrivalSpeed="14.28" duration="135.00" routeLength="1347.73" waitingTime="29.00" waitingCount="1" stopTime="0.00" timeLoss="61.52" rerouteNo="0" devices="tripinfo_61" vType="DEFAULT_VEHTYPE" speedFactor="1.09" vaporized=""/>
    <tripinfo id="117" depart="245.00" departLane="675768320#1_0" departPos="5.10" departSpeed="0.00" departDelay="0.00" arrival="261.00" arrivalLane="675768320#2_0" arrivalPos="18.00" arrivalSpeed="25.84" duration="16.00" routeLength="253.22" waitingTime="0.00" waitingCount="0" stopTime="0.00" timeLoss="6.48" rerouteNo="0" devices="tripinfo_117" vType="DEFAULT_VEHTYPE" speedFactor="0.97" vaporized=""/>
    <tripinfo id="98" depart="194.00" departLane="675768320#2_0" departPos="5.10" departSpeed="0.00" departDelay="0.00" arrival="262.00" arrivalLane="107391307#2_1" arrivalPos="180.48" arrivalSpeed="27.95" duration="68.00" routeLength="573.39" waitingTime="20.00" waitingCount="1" stopTime="0.00" timeLoss="44.94" rerouteNo="0" devices="tripinfo_98" vType="DEFAULT_VEHTYPE" speedFactor="1.02" vaporized=""/>