<?xml version="1.0" encoding="UTF-8"?>

<!-- generated on 2025-05-13 01:12:17 by Eclipse SUMO sumo Version 1.22.0
<sumoConfiguration xmlns:xsi="http://www.w3.org/2001/XMLSchema-instance" xsi:noNamespaceSchemaLocation="http://sumo.dlr.de/xsd/sumoConfiguration.xsd">

    <input>
        <net-file value="input/kalayaan_kamias.net.xml"/>
        <route-files value="input/routes.rou.xml"/>
    </input>

    <output>
        <netstate-dump value="input/netstate.xml"/>
        <summary-output value="input/summary.xml"/>
        <tripinfo-output value="output/tripinfo_traci.xml"/>
    </output>

    <time>
        <begin value="0"/>
        <end value="3600"/>
    </time>

    <traci_server>
        <remote-port value="53309"/>
    </traci_server>

</sumoConfiguration>
-->

<tripinfos xmlns:xsi="http://www.w3.org/2001/XMLSchema-instance" xsi:noNamespaceSchemaLocation="http://sumo.dlr.de/xsd/tripinfo_file.xsd">
    <tripinfo id="4" depart="5.00" departLane="94334032#0_0" departPos="5.10" departSpeed="0.00" departDelay="0.00" arrival="24.00" arrivalLane="-824295767#1_0" arrivalPos="0.79" arrivalSpeed="7.00" duration="19.00" routeLength="249.02" waitingTime="0.00" waitingCount="0" stopTime="0.00" timeLoss="9.82" rerouteNo="0" devices="tripinfo_4" vType="DEFAULT_VEHTYPE" speedFactor="1.08" vaporized=""/>
    <tripinfo id="5" depart="5.00" departLane="-1311896096#0_0" departPos="2.03" departSpeed="0.00" departDelay="0.00" arrival="24.00" arrivalLane="61450521#2_1" arrivalPos="11.05" arrivalSpeed="27.74" duration="19.00" routeLength="342.24" waitingTime="0.00" waitingCount="0" stopTime="0.00" timeLoss="6.16" rerouteNo="0" devices="tripinfo_5" vType="DEFAULT_VEHTYPE" speedFactor="1.03" vaporized=""/>
    <tripinfo id="1" depart="1.00" departLane="107391307#1_0" departPos="5.10" departSpeed="0.00" departDelay="0.00" arrival="38.00" arrivalLane="-107391307#1_1" arrivalPos="80.66" arrivalSpeed="29.11" duration="37.00" routeLength="534.28" waitingTime="0.00" waitingCount="0" stopTime="0.00" timeLoss="17.08" rerouteNo="0" devices="tripinfo_1" vType="DEFAULT_VEHTYPE" speedFactor="1.06" vaporized=""/>
    <tripinfo id="13" depart="26.00" departLane="1311896096#0_0" departPos="2.03" departSpeed="0.00" departDelay="0.00" arrival="40.00" arrivalLane="107391307#1_0" arrivalPos="80.66" arrivalSpeed="27.54" duration="14.00" routeLength="200.64" waitingTime="0.00" waitingCount="0" stopTime="0.00" timeLoss="6.24" rerouteNo="0" devices="tripinfo_13" vType="DEFAULT_VEHTYPE" speedFactor="1.03" vaporized=""/>
    <tripinfo id="2" depart="2.00" departLane="-244388662#0_0" departPos="1.36" departSpeed="0.00" departDelay="0.00" arrival="41.00" arrivalLane="244388662#1_1" arrivalPos="11.79" arrivalSpeed="7.63" duration="39.00" routeLength="18.11" waitingTime="33.00" waitingCount="1" stopTime="0.00" timeLoss="37.00" rerouteNo="0" devices="tripinfo_2" vType="DEFAULT_VEHTYPE" speedFactor="0.94" vaporized=""/>
    <tripinfo id="7" depart="12.00" departLane="-244388662#2_0" departPos="0.20" departSpeed="0.00" departDelay="2.00" arrival="43.00" arrivalLane="-1311896097#0_0" arrivalPos="15.43" arrivalSpeed="9.93" duration="31.00" routeLength="48.83" waitingTime="19.00" waitingCount="1" stopTime="0.00" timeLoss="27.75" rerouteNo="0" devices="tripinfo_7" vType="DEFAULT_VEHTYPE" speedFactor="1.05" vaporized=""/>
    <tripinfo id="9" depart="16.00" departLane="-824295767#0_0" departPos="5.10" departSpeed="0.00" departDelay="0.00" arrival="43.00" arrivalLane="-46256527#0_0" arrivalPos="346.38" arrivalSpeed="19.76" duration="27.00" routeLength="448.12" waitingTime="0.00" waitingCount="0" stopTime="0.00" timeLoss="5.18" rerouteNo="0" devices="tripinfo_9" vType="DEFAULT_VEHTYPE" speedFactor="0.94" vaporized=""/>
    <tripinfo id="19" depart="39.00" departLane="-244388662#1_0" departPos="5.10" departSpeed="0.00" departDelay="1.00" arrival="44.00" arrivalLane="-824295767#1_0" arrivalPos="0.79" arrivalSpeed="10.76" duration="5.00" routeLength="30.30" waitingTime="0.00" waitingCount="0" stopTime="0.00" timeLoss="3.44" rerouteNo="0" devices="tripinfo_19" vType="DEFAULT_VEHTYPE" speedFactor="0.88" vaporized=""/>
    <tripinfo id="6" depart="9.00" departLane="-244388662#2_0" departPos="0.20" departSpeed="0.00" departDelay="0.00" arrival="46.00" arrivalLane="-46256527#1_0" arrivalPos="38.13" arrivalSpeed="17.57" duration="37.00" routeLength="137.15" waitingTime="20.00" waitingCount="1" stopTime="0.00" timeLoss="29.10" rerouteNo="0" devices="tripinfo_6" vType="DEFAULT_VEHTYPE" speedFactor="0.83" vaporized=""/>
    <tripinfo id="3" depart="4.00" departLane="675768320#1_0" departPos="5.10" departSpeed="0.00" departDelay="0.00" arrival="48.00" arrivalLane="244388662#3_1" arrivalPos="13.75" arrivalSpeed="13.67" duration="44.00" routeLength="358.36" waitingTime="10.00" waitingCount="1" stopTime="0.00" timeLoss="29.49" rerouteNo="0" devices="tripinfo_3" vType="DEFAULT_VEHTYPE" speedFactor="1.01" vaporized=""/>
    <tripinfo id="16" depart="33.00" departLane="824295767#1_0" departPos="0.79" departSpeed="0.00" departDelay="0.00" arrival="50.00" arrivalLane="824295767#0_1" arrivalPos="39.75" arrivalSpeed="12.07" duration="17.00" routeLength="89.73" waitingTime="2.00" waitingCount="1" stopTime="0.00" timeLoss="11.58" rerouteNo="0" devices="tripinfo_16" vType="DEFAULT_VEHTYPE" speedFactor="1.12" vaporized=""/>
    <tripinfo id="21" depart="41.00" departLane="-244388662#2_0" departPos="0.20" departSpeed="0.00" departDelay="0.00" arrival="52.00" arrivalLane="244388662#2_1" arrivalPos="0.20" arrivalSpeed="10.15" duration="11.00" routeLength="50.35" waitingTime="0.00" waitingCount="0" stopTime="0.00" timeLoss="7.45" rerouteNo="0" devices="tripinfo_21" vType="DEFAULT_VEHTYPE" speedFactor="0.94" vaporized=""/>
    <tripinfo id="28" depart="54.00" departLane="-46256527#1_0" departPos="5.10" departSpeed="0.00" departDelay="0.00" arrival="71.00" arrivalLane="824295767#1_1" arrivalPos="0.79" arrivalSpeed="19.13" duration="17.00" routeLength="130.91" waitingTime="0.00" waitingCount="0" stopTime="0.00" timeLoss="9.45" rerouteNo="0" devices="tripinfo_28" vType="DEFAULT_VEHTYPE" speedFactor="0.97" vaporized=""/>
    <tripinfo id="15" depart="31.00" departLane="-824295767#0_0" departPos="5.10" departSpeed="0.00" departDelay="0.00" arrival="88.00" arrivalLane="-107391307#0_1" arrivalPos="84.06" arrivalSpeed="28.81" duration="57.00" routeLength="844.21" waitingTime="0.00" waitingCount="0" stopTime="0.00" timeLoss="23.40" rerouteNo="0" devices="tripinfo_15" vType="DEFAULT_VEHTYPE" speedFactor="1.05" vaporized=""/>
    <tripinfo id="34" depart="65.00" departLane="675768320#2_0" departPos="5.10" departSpeed="0.00" departDelay="0.00" arrival="88.00" arrivalLane="46256527#1_1" arrivalPos="38.13" arrivalSpeed="13.16" duration="23.00" routeLength="224.67" waitingTime="0.00" waitingCount="0" stopTime="0.00" timeLoss="11.73" rerouteNo="0" devices="tripinfo_34" vType="DEFAULT_VEHTYPE" speedFactor="0.92" vaporized=""/>
    <tripinfo id="10" depart="22.00" departLane="-107391307#1_0" departPos="5.10" departSpeed="0.00" departDelay="0.00" arrival="93.00" arrivalLane="-1311896097#0_0" arrivalPos="15.43" arrivalSpeed="7.55" duration="71.00" routeLength="235.25" waitingTime="44.00" waitingCount="2" stopTime="0.00" timeLoss="60.98" rerouteNo="0" devices="tripinfo_10" vType="DEFAULT_VEHTYPE" speedFactor="0.86" vaporized=""/>
    <tripinfo id="18" depart="36.00" departLane="1311896097#0_0" departPos="5.10" departSpeed="0.00" departDelay="2.00" arrival="93.00" arrivalLane="1311896096#1_1" arrivalPos="16.99" arrivalSpeed="8.25" duration="57.00" routeLength="51.91" waitingTime="41.00" waitingCount="2" stopTime="0.00" timeLoss="54.93" rerouteNo="0" devices="tripinfo_18" vType="DEFAULT_VEHTYPE" speedFactor="0.93" vaporized=""/>
    <tripinfo id="33" depart="63.00" departLane="-244388662#1_0" departPos="5.10" departSpeed="0.00" departDelay="0.00" arrival="93.00" arrivalLane="-46256527#0_0" arrivalPos="346.38" arrivalSpeed="19.36" duration="30.00" routeLength="483.62" waitingTime="0.00" waitingCount="0" stopTime="0.00" timeLoss="4.94" rerouteNo="0" devices="tripinfo_33" vType="DEFAULT_VEHTYPE" speedFactor="0.87" vaporized=""/>
    <tripinfo id="36" depart="67.00" departLane="-1311896096#1_0" departPos="5.10" departSpeed="0.00" departDelay="0.00" arrival="96.00" arrivalLane="-1311896097#0_0" arrivalPos="15.43" arrivalSpeed="12.59" duration="29.00" routeLength="51.79" waitingTime="17.00" waitingCount="2" stopTime="0.00" timeLoss="27.01" rerouteNo="0" devices="tripinfo_36" vType="DEFAULT_VEHTYPE" speedFactor="1.13" vaporized=""/>
    <tripinfo id="41" depart="77.00" departLane="675768320#0_0" departPos="5.10" departSpeed="0.00" departDelay="0.00" arrival="105.00" arrivalLane="675768320#1_0" arrivalPos="230.78" arrivalSpeed="28.51" duration="28.00" routeLength="239.25" waitingTime="7.00" waitingCount="1" stopTime="0.00" timeLoss="20.04" rerouteNo="0" devices="tripinfo_41" vType="DEFAULT_VEHTYPE" speedFactor="1.15" vaporized=""/>
    <tripinfo id="23" depart="47.00" departLane="1311896096#0_0" departPos="2.03" departSpeed="0.00" departDelay="4.00" arrival="110.00" arrivalLane="-94334032#1_0" arrivalPos="195.52" arrivalSpeed="13.33" duration="63.00" routeLength="1023.97" waitingTime="0.00" waitingCount="0" stopTime="0.00" timeLoss="22.91" rerouteNo="0" devices="tripinfo_23" vType="DEFAULT_VEHTYPE" speedFactor="0.94" vaporized=""/>
    <tripinfo id="40" depart="74.00" departLane="-1311896097#0_0" departPos="5.10" departSpeed="0.00" departDelay="0.00" arrival="115.00" arrivalLane="-824295767#0_0" arrivalPos="39.75" arrivalSpeed="13.55" duration="41.00" routeLength="536.70" waitingTime="0.00" waitingCount="0" stopTime="0.00" timeLoss="21.86" rerouteNo="0" devices="tripinfo_40" vType="DEFAULT_VEHTYPE" speedFactor="1.18" vaporized=""/>
    <tripinfo id="8" depart="14.00" departLane="107391307#0_0" departPos="5.10" departSpeed="0.00" departDelay="0.00" arrival="123.00" arrivalLane="94334032#1_1" arrivalPos="195.52" arrivalSpeed="23.78" duration="109.00" routeLength="1237.99" waitingTime="20.00" waitingCount="2" stopTime="0.00" timeLoss="57.05" rerouteNo="0" devices="tripinfo_8" vType="DEFAULT_VEHTYPE" speedFactor="0.89" vaporized=""/>
    <tripinfo id="11" depart="24.00" departLane="107391307#0_0" departPos="5.10" departSpeed="0.00" departDelay="0.00" arrival="127.00" arrivalLane="94334032#1_1" arrivalPos="195.52" arrivalSpeed="29.42" duration="103.00" routeLength="1237.99" waitingTime="14.00" waitingCount="2" stopTime="0.00" timeLoss="59.43" rerouteNo="0" devices="tripinfo_11" vType="DEFAULT_VEHTYPE" speedFactor="1.09" vaporized=""/>
    <tripinfo id="45" depart="125.00" departLane="-244388662#0_0" departPos="1.36" departSpeed="0.00" departDelay="41.00" arrival="129.00" arrivalLane="-824295767#1_0" arrivalPos="0.79" arrivalSpeed="8.87" duration="4.00" routeLength="21.96" waitingTime="0.00" waitingCount="0" stopTime="0.00" timeLoss="3.21" rerouteNo="0" devices="tripinfo_45" vType="DEFAULT_VEHTYPE" speedFactor="1.17" vaporized=""/>
    <tripinfo id="49" depart="92.00" departLane="46256527#1_0" departPos="5.10" departSpeed="0.00" departDelay="0.00" arrival="130.00" arrivalLane="-824295767#1_1" arrivalPos="0.79" arrivalSpeed="3.06" duration="38.00" routeLength="93.57" waitingTime="21.00" waitingCount="3" stopTime="0.00" timeLoss="32.85" rerouteNo="0" devices="tripinfo_49" vType="DEFAULT_VEHTYPE" speedFactor="1.02" vaporized=""/>
    <tripinfo id="68" depart="130.00" departLane="-1311896097#1_0" departPos="0.79" departSpeed="0.00" departDelay="0.00" arrival="131.00" arrivalLane="-1311896097#1_0" arrivalPos="0.79" arrivalSpeed="1.36" duration="1.00" routeLength="0.00" waitingTime="0.00" waitingCount="0" stopTime="0.00" timeLoss="0.96" rerouteNo="0" devices="tripinfo_68" vType="DEFAULT_VEHTYPE" speedFactor="1.17" vaporized=""/>
    <tripinfo id="35" depart="66.00" departLane="675768320#1_0" departPos="5.10" departSpeed="0.00" departDelay="0.00" arrival="133.00" arrivalLane="-46256527#1_0" arrivalPos="38.13" arrivalSpeed="19.88" duration="67.00" routeLength="422.19" waitingTime="32.00" waitingCount="1" stopTime="0.00" timeLoss="49.20" rerouteNo="0" devices="tripinfo_35" vType="DEFAULT_VEHTYPE" speedFactor="0.95" vaporized=""/>
    <tripinfo id="17" depart="33.00" departLane="1311896097#0_0" departPos="5.10" departSpeed="0.00" departDelay="0.00" arrival="134.00" arrivalLane="-1311896096#0_1" arrivalPos="2.03" arrivalSpeed="27.06" duration="101.00" routeLength="816.05" waitingTime="46.00" waitingCount="2" stopTime="0.00" timeLoss="70.43" rerouteNo="0" devices="tripinfo_17" vType="DEFAULT_VEHTYPE" speedFactor="0.99" vaporized=""/>
    <tripinfo id="52" depart="100.00" departLane="1311896097#1_0" departPos="0.79" departSpeed="0.00" departDelay="0.00" arrival="135.00" arrivalLane="244388662#1_1" arrivalPos="11.79" arrivalSpeed="12.02" duration="35.00" routeLength="129.49" waitingTime="8.00" waitingCount="2" stopTime="0.00" timeLoss="28.73" rerouteNo="0" devices="tripinfo_52" vType="DEFAULT_VEHTYPE" speedFactor="1.10" vaporized=""/>
    <tripinfo id="27" depart="53.00" departLane="107391307#0_0" departPos="5.10" departSpeed="0.00" departDelay="2.00" arrival="136.00" arrivalLane="94334032#1_1" arrivalPos="195.52" arrivalSpeed="27.93" duration="83.00" routeLength="1237.99" waitingTime="1.00" waitingCount="1" stopTime="0.00" timeLoss="36.39" rerouteNo="0" devices="tripinfo_27" vType="DEFAULT_VEHTYPE" speedFactor="1.01" vaporized=""/>
    <tripinfo id="51" depart="97.00" departLane="-46256527#1_0" departPos="5.10" departSpeed="0.00" departDelay="0.00" arrival="136.00" arrivalLane="107391307#0_0" arrivalPos="84.06" arrivalSpeed="22.13" duration="39.00" routeLength="253.17" waitingTime="8.00" waitingCount="1" stopTime="0.00" timeLoss="27.82" rerouteNo="0" devices="tripinfo_51" vType="DEFAULT_VEHTYPE" speedFactor="1.18" vaporized=""/>
    <tripinfo id="58" depart="115.00" departLane="-46256527#1_0" departPos="5.10" departSpeed="0.00" departDelay="1.00" arrival="137.00" arrivalLane="-46256527#0_0" arrivalPos="346.38" arrivalSpeed="23.66" duration="22.00" routeLength="393.90" waitingTime="0.00" waitingCount="0" stopTime="0.00" timeLoss="5.71" rerouteNo="0" devices="tripinfo_58" vType="DEFAULT_VEHTYPE" speedFactor="1.09" vaporized=""/>
    <tripinfo id="32" depart="62.00" departLane="1311896096#1_0" departPos="5.10" departSpeed="0.00" departDelay="0.00" arrival="141.00" arrivalLane="94334032#1_1" arrivalPos="195.52" arrivalSpeed="22.82" duration="79.00" routeLength="1264.38" waitingTime="0.00" waitingCount="0" stopTime="0.00" timeLoss="21.24" rerouteNo="0" devices="tripinfo_32" vType="DEFAULT_VEHTYPE" speedFactor="0.83" vaporized=""/>
    <tripinfo id="62" depart="123.00" departLane="-824295767#1_0" departPos="0.79" departSpeed="0.00" departDelay="0.00" arrival="141.00" arrivalLane="244388662#3_1" arrivalPos="13.75" arrivalSpeed="19.25" duration="18.00" routeLength="152.14" waitingTime="0.00" waitingCount="0" stopTime="0.00" timeLoss="10.09" rerouteNo="0" devices="tripinfo_62" vType="DEFAULT_VEHTYPE" speedFactor="1.00" vaporized=""/>
    <tripinfo id="57" depart="107.00" departLane="-244388662#2_0" departPos="0.20" departSpeed="0.00" departDelay="0.00" arrival="146.00" arrivalLane="61450521#2_2" arrivalPos="11.05" arrivalSpeed="25.44" duration="39.00" routeLength="360.62" waitingTime="11.00" waitingCount="1" stopTime="0.00" timeLoss="23.13" rerouteNo="0" devices="tripinfo_57" vType="DEFAULT_VEHTYPE" speedFactor="0.96" vaporized=""/>
    <tripinfo id="25" depart="49.00" departLane="94334032#1_0" departPos="5.10" departSpeed="0.00" departDelay="0.00" arrival="147.00" arrivalLane="61450521#2_1" arrivalPos="11.05" arrivalSpeed="27.71" duration="98.00" routeLength="665.63" waitingTime="36.00" waitingCount="5" stopTime="0.00" timeLoss="71.83" rerouteNo="0" devices="tripinfo_25" vType="DEFAULT_VEHTYPE" speedFactor="1.02" vaporized=""/>
    <tripinfo id="59" depart="115.00" departLane="-244388662#2_0" departPos="0.20" departSpeed="0.00" departDelay="0.00" arrival="147.00" arrivalLane="244388662#3_1" arrivalPos="13.75" arrivalSpeed="14.12" duration="32.00" routeLength="73.32" waitingTime="11.00" waitingCount="2" stopTime="0.00" timeLoss="28.07" rerouteNo="0" devices="tripinfo_59" vType="DEFAULT_VEHTYPE" speedFactor="1.04" vaporized=""/>
    <tripinfo id="30" depart="56.00" departLane="94334032#0_0" departPos="5.10" departSpeed="0.00" departDelay="0.00" arrival="150.00" arrivalLane="-1311896096#1_0" arrivalPos="16.99" arrivalSpeed="7.92" duration="94.00" routeLength="1041.50" waitingTime="8.00" waitingCount="2" stopTime="0.00" timeLoss="49.96" rerouteNo="0" devices="tripinfo_30" vType="DEFAULT_VEHTYPE" speedFactor="0.89" vaporized=""/>
    <tripinfo id="78" depart="150.00" departLane="-244388662#1_0" departPos="5.10" departSpeed="0.00" departDelay="0.00" arrival="159.00" arrivalLane="244388662#3_1" arrivalPos="13.75" arrivalSpeed="14.36" duration="9.00" routeLength="58.92" waitingTime="0.00" waitingCount="0" stopTime="0.00" timeLoss="5.83" rerouteNo="0" devices="tripinfo_78" vType="DEFAULT_VEHTYPE" speedFactor="1.02" vaporized=""/>
    <tripinfo id="79" depart="154.00" departLane="-244388662#0_0" departPos="1.36" departSpeed="0.00" departDelay="0.00" arrival="159.00" arrivalLane="-1311896097#0_0" arrivalPos="15.43" arrivalSpeed="10.15" duration="5.00" routeLength="26.09" waitingTime="0.00" waitingCount="0" stopTime="0.00" timeLoss="3.04" rerouteNo="0" devices="tripinfo_79" vType="DEFAULT_VEHTYPE" speedFactor="0.97" vaporized=""/>
    <tripinfo id="53" depart="103.00" departLane="-244388662#2_0" departPos="0.20" departSpeed="0.00" departDelay="0.00" arrival="163.00" arrivalLane="107391307#2_0" arrivalPos="180.48" arrivalSpeed="24.88" duration="60.00" routeLength="528.67" waitingTime="12.00" waitingCount="1" stopTime="0.00" timeLoss="35.45" rerouteNo="0" devices="tripinfo_53" vType="DEFAULT_VEHTYPE" speedFactor="0.90" vaporized=""/>
    <tripinfo id="69" depart="133.00" departLane="675768320#1_0" departPos="5.10" departSpeed="0.00" departDelay="0.00" arrival="163.00" arrivalLane="824295767#1_1" arrivalPos="0.79" arrivalSpeed="11.80" duration="30.00" routeLength="414.90" waitingTime="0.00" waitingCount="0" stopTime="0.00" timeLoss="13.53" rerouteNo="0" devices="tripinfo_69" vType="DEFAULT_VEHTYPE" speedFactor="1.02" vaporized=""/>
    <tripinfo id="24" depart="45.00" departLane="107391307#1_0" departPos="5.10" departSpeed="0.00" departDelay="0.00" arrival="170.00" arrivalLane="-824295767#1_0" arrivalPos="0.79" arrivalSpeed="6.13" duration="125.00" routeLength="1180.49" waitingTime="37.00" waitingCount="2" stopTime="0.00" timeLoss="86.07" rerouteNo="0" devices="tripinfo_24" vType="DEFAULT_VEHTYPE" speedFactor="1.16" vaporized=""/>
    <tripinfo id="44" depart="81.00" departLane="824295767#0_0" departPos="5.10" departSpeed="0.00" departDelay="0.00" arrival="180.00" arrivalLane="61450521#3_0" arrivalPos="1034.84" arrivalSpeed="26.65" duration="99.00" routeLength="1424.95" waitingTime="32.00" waitingCount="2" stopTime="0.00" timeLoss="47.28" rerouteNo="0" devices="tripinfo_44" vType="DEFAULT_VEHTYPE" speedFactor="1.01" vaporized=""/>
    <tripinfo id="72" depart="136.00" departLane="61450521#2_0" departPos="5.10" departSpeed="0.00" departDelay="0.00" arrival="182.00" arrivalLane="61450521#3_0" arrivalPos="1034.84" arrivalSpeed="26.62" duration="46.00" routeLength="1041.08" waitingTime="0.00" waitingCount="0" stopTime="0.00" timeLoss="7.95" rerouteNo="0" devices="tripinfo_72" vType="DEFAULT_VEHTYPE" speedFactor="1.00" vaporized=""/>
    <tripinfo id="54" depart="103.00" departLane="107391307#1_0" departPos="5.10" departSpeed="0.00" departDelay="0.00" arrival="183.00" arrivalLane="244388662#1_0" arrivalPos="11.79" arrivalSpeed="7.51" duration="80.00" routeLength="678.84" waitingTime="20.00" waitingCount="2" stopTime="0.00" timeLoss="54.25" rerouteNo="0" devices="tripinfo_54" vType="DEFAULT_VEHTYPE" speedFactor="1.03" vaporized=""/>
    <tripinfo id="63" depart="123.00" departLane="1311896096#1_0" departPos="5.10" departSpeed="0.00" departDelay="0.00" arrival="183.00" arrivalLane="-1311896097#1_0" arrivalPos="0.79" arrivalSpeed="17.23" duration="60.00" routeLength="797.95" waitingTime="0.00" waitingCount="0" stopTime="0.00" timeLoss="26.83" rerouteNo="0" devices="tripinfo_63" vType="DEFAULT_VEHTYPE" speedFactor="0.90" vaporized=""/>
    <tripinfo id="67" depart="127.00" departLane="-107391307#0_0" departPos="5.10" departSpeed="0.00" departDelay="0.00" arrival="183.00" arrivalLane="1311896096#1_1" arrivalPos="16.99" arrivalSpeed="7.97" duration="56.00" routeLength="131.66" waitingTime="35.00" waitingCount="2" stopTime="0.00" timeLoss="49.07" rerouteNo="0" devices="tripinfo_67" vType="DEFAULT_VEHTYPE" speedFactor="0.85" vaporized=""/>
    <tripinfo id="37" depart="71.00" departLane="107391307#1_0" departPos="5.10" departSpeed="0.00" departDelay="0.00" arrival="189.00" arrivalLane="-46256527#1_0" arrivalPos="38.13" arrivalSpeed="20.44" duration="118.00" routeLength="1272.94" waitingTime="26.00" waitingCount="2" stopTime="0.00" timeLoss="64.16" rerouteNo="0" devices="tripinfo_37" vType="DEFAULT_VEHTYPE" speedFactor="0.93" vaporized=""/>
    <tripinfo id="60" depart="116.00" departLane="107391307#1_0" departPos="5.10" departSpeed="0.00" departDelay="0.00" arrival="194.00" arrivalLane="1311896096#1_1" arrivalPos="16.99" arrivalSpeed="9.71" duration="78.00" routeLength="680.38" waitingTime="17.00" waitingCount="2" stopTime="0.00" timeLoss="52.83" rerouteNo="0" devices="tripinfo_60" vType="DEFAULT_VEHTYPE" speedFactor="1.04" vaporized=""/>
    <tripinfo id="94" depart="198.00" departLane="-824295767#1_0" departPos="0.79" departSpeed="0.00" departDelay="15.00" arrival="199.00" arrivalLane="-824295767#1_0" arrivalPos="0.79" arrivalSpeed="2.09" duration="1.00" routeLength="0.00" waitingTime="0.00" waitingCount="0" stopTime="0.00" timeLoss="0.91" rerouteNo="0" devices="tripinfo_94" vType="DEFAULT_VEHTYPE" speedFactor="1.04" vaporized=""/>
    <tripinfo id="65" depart="124.00" departLane="46256527#0_0" departPos="5.10" departSpeed="0.00" departDelay="0.00" arrival="205.00" arrivalLane="-1311896097#1_1" arrivalPos="0.79" arrivalSpeed="23.17" duration="81.00" routeLength="1262.10" waitingTime="0.00" waitingCount="0" stopTime="0.00" timeLoss="20.34" rerouteNo="0" devices="tripinfo_65" vType="DEFAULT_VEHTYPE" speedFactor="0.85" vaporized=""/>
    <tripinfo id="91" depart="177.00" departLane="-107391307#1_0" departPos="5.10" departSpeed="0.00" departDelay="0.00" arrival="208.00" arrivalLane="107391307#0_1" arrivalPos="84.06" arrivalSpeed="20.59" duration="31.00" routeLength="315.12" waitingTime="0.00" waitingCount="0" stopTime="0.00" timeLoss="16.58" rerouteNo="0" devices="tripinfo_91" vType="DEFAULT_VEHTYPE" speedFactor="0.91" vaporized=""/>
    <tripinfo id="101" depart="210.00" departLane="1311896097#1_0" departPos="0.79" departSpeed="0.00" departDelay="2.00" arrival="211.00" arrivalLane="1311896097#1_0" arrivalPos="0.79" arrivalSpeed="1.95" duration="1.00" routeLength="0.00" waitingTime="0.00" waitingCount="0" stopTime="0.00" timeLoss="0.93" rerouteNo="0" devices="tripinfo_101" vType="DEFAULT_VEHTYPE" speedFactor="0.97" vaporized=""/>
    <tripinfo id="71" depart="135.00" departLane="4910318#0_0" departPos="5.10" departSpeed="0.00" departDelay="0.00" arrival="220.00" arrivalLane="244388662#1_1" arrivalPos="11.79" arrivalSpeed="13.29" duration="85.00" routeLength="628.74" waitingTime="24.00" waitingCount="1" stopTime="0.00" timeLoss="42.81" rerouteNo="0" devices="tripinfo_71" vType="DEFAULT_VEHTYPE" speedFactor="1.00" vaporized=""/>
    <tripinfo id="74" depart="139.00" departLane="94334032#0_0" departPos="5.10" departSpeed="0.00" departDelay="0.00" arrival="224.00" arrivalLane="244388662#1_1" arrivalPos="11.79" arrivalSpeed="14.51" duration="85.00" routeLength="368.69" waitingTime="37.00" waitingCount="3" stopTime="0.00" timeLoss="70.73" rerouteNo="0" devices="tripinfo_74" vType="DEFAULT_VEHTYPE" speedFactor="1.14" vaporized=""/>
    <tripinfo id="95" depart="192.00" departLane="94334032#0_0" departPos="5.10" departSpeed="0.00" departDelay="0.00" arrival="225.00" arrivalLane="244388662#0_1" arrivalPos="1.35" arrivalSpeed="15.67" duration="33.00" routeLength="356.60" waitingTime="0.00" waitingCount="0" stopTime="0.00" timeLoss="17.38" rerouteNo="0" devices="tripinfo_95" vType="DEFAULT_VEHTYPE" speedFactor="1.02" vaporized=""/>
    <tripinfo id="107" depart="219.00" departLane="824295767#0_0" departPos="5.10" departSpeed="0.00" departDelay="0.00" arrival="227.00" arrivalLane="244388662#0_0" arrivalPos="1.35" arrivalSpeed="15.81" duration="8.00" routeLength="57.96" waitingTime="0.00" waitingCount="0" stopTime="0.00" timeLoss="5.11" rerouteNo="0" devices="tripinfo_107" vType="DEFAULT_VEHTYPE" speedFactor="1.03" vaporized=""/>
    <tripinfo id="73" depart="136.00" departLane="94334032#1_0" departPos="5.10" departSpeed="0.00" departDelay="0.00" arrival="235.00" arrivalLane="61450521#0_2" arrivalPos="253.60" arrivalSpeed="24.08" duration="99.00" routeLength="641.15" waitingTime="38.00" waitingCount="3" stopTime="0.00" timeLoss="69.19" rerouteNo="0" devices="tripinfo_73" vType="DEFAULT_VEHTYPE" speedFactor="0.90" vaporized=""/>
    <tripinfo id="82" depart="159.00" departLane="824295767#0_0" departPos="5.10" departSpeed="0.00" departDelay="0.00" arrival="236.00" arrivalLane="107391307#2_0" arrivalPos="180.48" arrivalSpeed="13.23" duration="77.00" routeLength="434.35" waitingTime="48.00" waitingCount="1" stopTime="0.00" timeLoss="61.40" rerouteNo="0" devices="tripinfo_82" vType="DEFAULT_VEHTYPE" speedFactor="1.08" vaporized=""/>
    <tripinfo id="90" depart="176.00" departLane="4910318#0_0" departPos="5.10" departSpeed="0.00" departDelay="0.00" arrival="236.00" arrivalLane="244388662#3_0" arrivalPos="13.75" arrivalSpeed="23.07" duration="60.00" routeLength="661.21" waitingTime="0.00" waitingCount="0" stopTime="0.00" timeLoss="9.90" rerouteNo="0" devices="tripinfo_90" vType="DEFAULT_VEHTYPE" speedFactor="0.88" vaporized=""/>
    <tripinfo id="92" depart="178.00" departLane="94334032#0_0" departPos="5.10" departSpeed="0.00" departDelay="0.00" arrival="238.00" arrivalLane="61450521#2_1" arrivalPos="11.05" arrivalSpeed="24.47" duration="60.00" routeLength="688.46" waitingTime="2.00" waitingCount="1" stopTime="0.00" timeLoss="29.70" rerouteNo="0" devices="tripinfo_92" vType="DEFAULT_VEHTYPE" speedFactor="0.91" vaporized=""/>
    <tripinfo id="109" depart="223.00" departLane="675768320#1_0" departPos="5.10" departSpeed="0.00" departDelay="2.00" arrival="239.00" arrivalLane="675768320#2_0" arrivalPos="18.00" arrivalSpeed="27.28" duration="16.00" routeLength="253.22" waitingTime="0.00" waitingCount="0" stopTime="0.00" timeLoss="6.41" rerouteNo="0" devices="tripinfo_109" vType="DEFAULT_VEHTYPE" speedFactor="1.01" vaporized=""/>
    <tripinfo id="105" depart="218.00" departLane="675768320#0_0" departPos="5.10" departSpeed="0.00" departDelay="0.00" arrival="243.00" arrivalLane="-46256527#1_0" arrivalPos="38.13" arrivalSpeed="14.66" duration="25.00" routeLength="435.76" waitingTime="0.00" waitingCount="0" stopTime="0.00" timeLoss="7.87" rerouteNo="0" devices="tripinfo_105" vType="DEFAULT_VEHTYPE" speedFactor="0.98" vaporized=""/>
    <tripinfo id="98" depart="194.00" departLane="675768320#2_0" departPos="5.10" departSpeed="0.00" departDelay="0.00" arrival="250.00" arrivalLane="107391307#2_0" arrivalPos="180.48" arrivalSpeed="13.33" duration="56.00" routeLength="573.39" waitingTime="7.00" waitingCount="1" stopTime="0.00" timeLoss="33.41" rerouteNo="0" devices="tripinfo_98" vType="DEFAULT_VEHTYPE" speedFactor="1.02" vaporized=""/>
    <tripinfo id="61" depart="119.00" departLane="-94334032#1_0" departPos="5.10" departSpeed="0.00" departDelay="0.00" arrival="252.00" arrivalLane="4910318#1_0" arrivalPos="774.25" arrivalSpeed="14.10" duration="133.00" routeLength="1347.73" waitingTime="21.00" waitingCount="2" stopTime="0.00" timeLoss="59.08" rerouteNo="0" devices="tripinfo_61" vType="DEFAULT_VEHTYPE" speedFactor="1.09" vaporized=""/>
    <tripinfo id="64" depart="124.00" departLane="107391307#0_0" departPos="5.10" departSpeed="0.00" departDelay="0.00" arrival="258.00" arrivalLane="1311896097#0_1" arrivalPos="15.43" arrivalSpeed="5.06" duration="134.00" routeLength="1262.82" waitingTime="23.00" waitingCount="3" stopTime="0.00" timeLoss="79.46" rerouteNo="0" devices="tripinfo_64" vType="DEFAULT_VEHTYPE" speedFactor="0.88" vaporized=""/>
    <tripinfo id="103" depart="215.00" departLane="-107391307#2_0" departPos="5.10" departSpeed="0.00" departDelay="0.00" arrival="259.00" arrivalLane="244388662#1_0" arrivalPos="11.79" arrivalSpeed="9.99" duration="44.00" routeLength="406.83" waitingTime="15.00" waitingCount="1" stopTime="0.00" timeLoss="29.26" rerouteNo="0" devices="tripinfo_103" vType="DEFAULT_VEHTYPE" speedFactor="1.06" vaporized=""/>
    <tripinfo id="117" depart="245.00" departLane="675768320#1_0" departPos="5.10" departSpeed="0.00" departDelay="0.00" arrival="261.00" arrivalLane="675768320#2_0" arrivalPos="18.00" arrivalSpeed="26.77" duration="16.00" routeLength="253.22" waitingTime="0.00" waitingCount="0" stopTime="0.00" timeLoss="5.90" rerouteNo="0" devices="tripinfo_117" vType="DEFAULT_VEHTYPE" speedFactor="0.97" vaporized=""/>
    <tripinfo id="133" depart="265.00" departLane="-1311896096#0_0" departPos="2.03" departSpeed="0.00" departDelay="0.00" arrival="269.00" arrivalLane="244388662#0_0" arrivalPos="1.35" arrivalSpeed="6.77" duration="4.00" routeLength="10.38" waitingTime="0.00" waitingCount="0" stopTime="0.00" timeLoss="2.85" rerouteNo="0" devices="tripinfo_133" vType="DEFAULT_VEHTYPE" speedFactor="1.01" vaporized=""/>